Title: ***** spice netlist for cell 'lab2_sue' *****
Date: Sun Feb 18 20:28:57  2018
Plotname: Operating Point
Flags: real
No. Variables: 6
No. Points: 0       
Variables:
Title: ***** spice netlist for cell 'lab2_sue' *****
Date: Sun Feb 18 20:28:57  2018
Plotname: Transient Analysis
Flags: real
No. Variables: 7
No. Points: 0       
Variables:
